  variables="x","y","u" 
      zone        i=11        j=11
           1           1  6.483433293791575E-017
           2           1  1.767127161727019E-017
           3           1 -6.237673163398351E-017
           4           1 -9.259806568896826E-017
           5           1 -5.250459666617001E-017
           6           1  2.299834011737031E-002
           7           1  1.365534927261234E-002
           8           1  6.573010744063471E-003
           9           1  4.112297469791542E-003
          10           1  2.512660855252312E-003
          11           1  1.419163870831604E-003
           1           2  1.724324926314559E-017
           2           2  6.160884027408512E-017
           3           2 -5.839990448379970E-018
           4           2  4.506787509788507E-018
           5           2  7.757433150921591E-018
           6           2 -4.910564558829631E-002
           7           2 -2.959150240096087E-002
           8           2 -1.454675310890164E-002
           9           2 -9.095069791936744E-003
          10           2 -5.509829736524228E-003
          11           2 -3.070095266528458E-003
           1           3 -4.133624942574943E-020
           2           3  9.437386916541405E-020
           3           3 -4.673493851074315E-020
           4           3 -1.219270944048610E-019
           5           3 -1.226992044361092E-019
           6           3  7.236455719050597E-002
           7           3  4.343341630289792E-002
           8           3  2.122991460273573E-002
           9           3  1.325874663212856E-002
          10           3  8.044074033863410E-003
          11           3  4.499901183874145E-003
           1           4  3.163016559223128E-022
           2           4 -1.597635576515495E-022
           3           4 -3.887524965667465E-021
           4           4 -5.614931476732952E-021
           5           4 -5.804210830849391E-021
           6           4 -8.991813917443112E-002
           7           4 -5.405594351215939E-002
           8           4 -2.648224402139341E-002
           9           4 -1.655276205416427E-002
          10           4 -1.004076936669466E-002
          11           4 -5.608349122168018E-003
           1           5  1.253033325522726E-023
           2           5  3.521642925088158E-024
           3           5 -1.534611008366445E-022
           4           5 -3.488610381076746E-022
           5           5 -5.133119548545376E-022
           6           5  0.101214595213078     
           7           5  6.079657847646498E-002
           8           5  2.975064148027634E-002
           9           5  1.858519720954332E-002
          10           5  1.127205098054235E-002
          11           5  6.300234085742297E-003
           1           6  5.035434058830449E-025
           2           6  5.457376380593866E-025
           3           6 -5.728878944442753E-024
           4           6 -1.861852114144011E-023
           5           6 -3.557365320697790E-023
           6           6 -0.104940152500565     
           7           6 -6.307034646700944E-002
           8           6 -3.088674096325291E-002
           9           6 -1.930336011666511E-002
          10           6 -1.171012014590076E-002
          11           6 -6.542704748605630E-003
           1           7  2.023536466052866E-026
           2           7  3.817506162259032E-026
           3           7 -1.995805748722823E-025
           4           7 -9.083886118789794E-025
           5           7 -2.158372483187174E-024
           6           7  0.101214595212920     
           7           7  6.079657847636957E-002
           8           7  2.975064148022958E-002
           9           7  1.858519720951413E-002
          10           7  1.127205098052462E-002
          11           7  6.300234085732313E-003
           1           8  8.131757958473740E-028
           2           8  2.186892493923861E-027
           3           8 -6.264504468883472E-027
           4           8 -4.153428734268103E-026
           5           8 -1.200712370384597E-025
           6           8 -8.991813917411418E-002
           7           8 -5.405594351196906E-002
           8           8 -2.648224402130055E-002
           9           8 -1.655276205410651E-002
          10           8 -1.004076936665966E-002
          11           8 -5.608349122148741E-003
           1           9  3.267812334174398E-029
           2           9  1.141106126567949E-028
           3           9 -1.600844080843491E-028
           4           9 -1.797560568286798E-027
           5           9 -6.261874211029702E-027
           6           9  7.236455719005493E-002
           7           9  4.343341630262653E-002
           8           9  2.122991460260264E-002
           9           9  1.325874663204496E-002
          10           9  8.044074033812848E-003
          11           9  4.499901183845283E-003
           1          10  1.313230525248056E-030
           2          10  5.640519968994209E-030
           3          10 -1.927290370108056E-030
           4          10 -7.366664885765645E-029
           5          10 -3.081911810129749E-028
           6          10 -4.910564558775911E-002
           7          10 -2.959150240063571E-002
           8          10 -1.454675310874202E-002
           9          10 -9.095069791843834E-003
          10          10 -5.509829736466808E-003
          11          10 -3.070095266501018E-003
           1          11  5.276907337829573E-032
           2          11  2.692065290135328E-031
           3          11  1.390568528096324E-031
           4          11 -2.823403004876396E-030
           5          11 -1.500444479187724E-029
           6          11  2.299834011700746E-002
           7          11  1.365534927239627E-002
           8          11  6.573010743960064E-003
           9          11  4.112297469733793E-003
          10          11  2.512660855215721E-003
          11          11  1.419163870815376E-003
