  variables="x","y","v" 
      zone        i=11        j=11
           1           1 -5.764844975955880E-017
           2           1  1.450795870641525E-018
           3           1  7.575789684094470E-018
           4           1  6.274173685303430E-017
           5           1 -6.163989001709684E-018
           6           1 -5.728435509989558E-003
           7           1 -1.157967059168017E-003
           8           1  6.607447403735158E-004
           9           1  6.423706939706407E-004
          10           1  4.576575928992639E-004
          11           1  3.275429973375327E-004
           1           2  2.621656993199184E-017
           2           2  9.032559148848454E-017
           3           2  1.347044166614536E-016
           4           2  1.045422651658187E-016
           5           2  2.158588021752717E-016
           6           2  4.989545361697669E-003
           7           2  6.590956659546928E-004
           8           2 -6.208529261456760E-004
           9           2 -4.667100081807199E-004
          10           2 -2.937138596110453E-004
          11           2 -1.992711425501267E-004
           1           3 -1.216217077895989E-018
           2           3  2.685549967137128E-018
           3           3  3.750193614899976E-018
           4           3  1.001365955178022E-018
           5           3 -4.313665171606183E-019
           6           3 -4.198814941559089E-003
           7           3 -7.260266918278274E-004
           8           3  4.702982574059667E-004
           9           3  4.266424122134508E-004
          10           3  3.027799415416089E-004
          11           3  2.191501409215448E-004
           1           4 -7.333950210984172E-021
           2           4  2.748990270792856E-021
           3           4  9.229870011615384E-020
           4           4  1.487089891890506E-019
           5           4  1.751728998799084E-019
           6           4  2.931875812163819E-003
           7           4  4.298854690702327E-004
           8           4 -3.631063178660212E-004
           9           4 -2.891103055181246E-004
          10           4 -1.862488144312677E-004
          11           4 -1.267613669448464E-004
           1           5 -2.990379764304098E-022
           2           5 -1.330756600923929E-022
           3           5  3.599577360731429E-021
           4           5  8.863371093225197E-021
           5           5  1.415284268686523E-020
           6           5 -1.541278734288820E-003
           7           5 -2.561791316141385E-004
           8           5  1.742005843342576E-004
           9           5  1.531793084568387E-004
          10           5  1.074269537892625E-004
          11           5  7.763446666785721E-005
           1           6 -1.201712940147520E-023
           2           6 -1.499443837475556E-023
           3           6  1.326154172341793E-022
           4           6  4.626379520769895E-022
           5           6  9.401282764713386E-022
           6           6 -1.576827772614765E-014
           7           6 -2.167436204019344E-015
           8           6  2.347362307201175E-015
           9           6  1.942126500197311E-015
          10           6  1.480982485545390E-015
          11           6  1.079081238389658E-015
           1           7 -4.829198344468279E-025
           2           7 -9.902242360628740E-025
           3           7  4.534367173754726E-024
           4           7  2.223179551168975E-023
           5           7  5.562470331336247E-023
           6           7  1.541278734321553E-003
           7           7  2.561791316198444E-004
           8           7 -1.742005843370096E-004
           9           7 -1.531793084592710E-004
          10           7 -1.074269537904587E-004
          11           7 -7.763446666863555E-005
           1           8 -1.940658414566960E-026
           2           8 -5.537234715378592E-026
           3           8  1.377666522505571E-025
           4           8  1.003985728419876E-024
           5           8  3.040787875117707E-024
           6           8 -2.931875812193310E-003
           7           8 -4.298854690744285E-004
           8           8  3.631063178712550E-004
           9           8  2.891103055219769E-004
          10           8  1.862488144346400E-004
          11           8  1.267613669470141E-004
           1           9 -7.798716188307294E-028
           2           9 -2.851172041025308E-027
           3           9  3.247331984960516E-027
           4           9  4.295614235279042E-026
           5           9  1.567400241340678E-025
           6           9  4.198814941585536E-003
           7           9  7.260266918321283E-004
           8           9 -4.702982574058325E-004
           9           9 -4.266424122151754E-004
          10           9 -3.027799415411347E-004
          11           9 -2.191501409220263E-004
           1          10 -3.133947720258784E-029
           2          10 -1.397425568354926E-028
           3          10  1.830092295986435E-029
           4          10  1.741173343970398E-027
           5          10  7.694241664152398E-027
           6          10 -4.989545361695914E-003
           7          10 -6.590956659607597E-004
           8          10  6.208529261364015E-004
           9          10  4.667100081775999E-004
          10          10  2.937138596068668E-004
          11          10  1.992711425487095E-004
           1          11 -1.259426817816132E-030
           2          11 -6.624857206554328E-030
           3          11 -4.586520686626008E-030
           4          11  6.618346360300392E-029
           5          11  3.624305406404183E-028
           6          11  5.728435509916741E-003
           7          11  1.157967059148273E-003
           8          11 -6.607447403739376E-004
           9          11 -6.423706939656964E-004
          10          11 -4.576575928980094E-004
          11          11 -3.275429973350149E-004
