  variables="x","y","<greek>r</greek>" 
      zone        i=11        j=11
           1           1  1.146932655946650E-016
           2           1  6.268518925424676E-017
           3           1 -2.778543908615627E-017
           4           1 -3.574494978033978E-017
           5           1  5.101504236179551E-017
           6           1 -3.929724970490953E-002
           7           1  4.657895403705082E-002
           8           1  4.920544382905185E-002
           9           1  2.653408970272469E-002
          10           1  1.512395248572714E-002
          11           1  9.456672715165232E-003
           1           2 -1.373626454944333E-017
           2           2  1.523886056645241E-016
           3           2 -8.422879087869453E-017
           4           2  2.582047070846175E-016
           5           2  2.547604874824502E-016
           6           2  8.046994082254565E-002
           7           2 -0.106653791418632     
           8           2 -0.105511017294509     
           9           2 -5.543868739072443E-002
          10           2 -3.109405651582050E-002
          11           2 -1.924491099758118E-002
           1           3  1.754598952408409E-016
           2           3  1.053666423587598E-016
           3           3  1.455966506680807E-016
           4           3  1.497360588002357E-016
           5           3  2.643283730260897E-016
           6           3 -0.120106622544944     
           7           3  0.154112636046108     
           8           3  0.154840186456350     
           9           3  8.202834976407378E-002
          10           3  4.633260331489371E-002
          11           3  2.880158648343060E-002
           1           4 -1.510087307961065E-019
           2           4  5.174037713476562E-020
           3           4  1.846412172288003E-018
           4           4  2.975894603858240E-018
           5           4  3.504964738057354E-018
           6           4  0.148413154903503     
           7           4 -0.193114028838739     
           8           4 -0.192937364872609     
           9           4 -0.101886367986822     
          10           4 -5.734399623668437E-002
          11           4 -3.556185845628840E-002
           1           5 -5.990738038029275E-021
           2           5 -2.662347310887193E-021
           3           5  7.211589579794465E-020
           4           5  1.775228111852633E-019
           5           5  2.833910097555996E-019
           6           5 -0.167576700690928     
           7           5  0.216379653949884     
           8           5  0.216749975038388     
           9           5  0.114619535305347     
          10           5  6.464287152524278E-002
          11           5  4.014934984856958E-002
           1           6 -2.407436246195579E-022
           2           6 -3.002443485845332E-022
           3           6  2.657026135124138E-021
           4           6  9.266773926320550E-021
           5           6  1.882746319211285E-020
           6           6  0.173356850597024     
           7           6 -0.225082816126834     
           8           6 -0.225088445778962     
           9           6 -0.118938041591264     
          10           6 -6.698163724461782E-002
          11           6 -4.155329462460791E-002
           1           7 -9.674515243612307E-024
           2           7 -1.983174410298561E-023
           3           7  9.085527789387052E-023
           4           7  4.453352360022240E-022
           5           7  1.114093531047119E-021
           6           7 -0.167576700690673     
           7           7  0.216379653949537     
           8           7  0.216749975038043     
           9           7  0.114619535305165     
          10           7  6.464287152513763E-002
          11           7  4.014934984850414E-002
           1           8 -3.887795044015572E-025
           2           8 -1.109047702126318E-024
           3           8  2.760870940521084E-024
           4           8  2.011169674191520E-023
           5           8  6.090184060326883E-023
           6           8  0.148413154902973     
           7           8 -0.193114028838071     
           8           8 -0.192937364871945     
           9           8 -0.101886367986469     
          10           8 -5.734399623649321E-002
          11           8 -3.556185845616683E-002
           1           9 -1.562356787593508E-026
           2           9 -5.710965793479630E-026
           3           9  6.509036635594029E-026
           4           9  8.603595709301921E-025
           5           9  3.138294621854949E-024
           6           9 -0.120106622544211     
           7           9  0.154112636045123     
           8           9  0.154840186455352     
           9           9  8.202834976355439E-002
          10           9  4.633260331458697E-002
          11           9  2.880158648324781E-002
           1          10 -6.278372440281282E-028
           2          10 -2.799031915783973E-027
           3          10  3.676347390086573E-028
           4          10  3.486931334087468E-026
           5          10  1.542645767842484E-025
           6          10  8.046994082159006E-002
           7          10 -0.106653791417550     
           8          10 -0.105511017293632     
           9          10 -5.543868739017020E-002
          10          10 -3.109405651562945E-002
          11          10 -1.924491099739718E-002
           1          11 -2.523055288805935E-029
           2          11 -1.327486882377096E-028
           3          11 -9.195236945031999E-029
           4          11  1.328020929018813E-027
           5          11  7.274432333546609E-027
           6          11 -3.929724970420713E-002
           7          11  4.657895403640652E-002
           8          11  4.920544382855513E-002
           9          11  2.653408970235663E-002
          10          11  1.512395248563733E-002
          11          11  9.456672715039754E-003
