  variables="x","y","v" 
      zone        i=11        j=11
           1           1  1.610494729944265E-017
           2           1 -3.357905179405758E-017
           3           1 -2.216253323919159E-017
           4           1  2.120165847473708E-017
           5           1  3.499007986320811E-013
           6           1  3.963542611049753E-003
           7           1 -4.651967636853898E-004
           8           1 -1.127558457101912E-004
           9           1 -3.277495836163745E-005
          10           1 -1.018473803909635E-005
          11           1 -3.263134849179096E-006
           1           2 -7.094788424553892E-019
           2           2  2.552822600775219E-018
           3           2 -5.346109100771627E-018
           4           2  6.292438813266176E-018
           5           2 -3.316236356627564E-013
           6           2 -3.575556960953791E-003
           7           2  4.162392674017697E-004
           8           2  8.952460547037571E-005
           9           2  2.482232833143855E-005
          10           2  7.591997642046245E-006
          11           2  2.417888091139143E-006
           1           3 -1.156138450996091E-020
           2           3  5.983430635698040E-020
           3           3 -6.131176899840858E-021
           4           3  2.180072372239465E-019
           5           3  2.711579563474522E-013
           6           3  2.928630533856811E-003
           7           3 -3.417403490472022E-004
           8           3 -7.653248894001003E-005
           9           3 -2.192030685869037E-005
          10           3 -6.851133395840303E-006
          11           3 -2.217312539097065E-006
           1           4 -2.868684997737225E-022
           2           4  1.333609109441401E-021
           3           4  5.056401172020919E-022
           4           4  5.556514416877109E-021
           5           4 -1.922534423438269E-013
           6           4 -2.076023394883150E-003
           7           4  2.420659342914138E-004
           8           4  5.343553765390369E-005
           9           4  1.505341036718790E-005
          10           4  4.635964915277236E-006
          11           4  1.480607995771639E-006
           1           5 -7.073860197490363E-024
           2           5  2.940008500455858E-023
           3           5  2.695352897454556E-023
           4           5  1.861898279764906E-022
           5           5  9.964146079794816E-014
           6           5  1.076036483158566E-003
           7           5 -1.255028414818980E-004
           8           5 -2.787812996406909E-005
           9           5 -7.926567374998648E-006
          10           5 -2.465590366602538E-006
          11           5 -7.954464325844712E-007
           1           6 -1.744330240591572E-025
           2           6  6.390152382838768E-025
           3           6  9.793537234617277E-025
           4           6  4.229915757696857E-024
           5           6  7.084703044363602E-024
           6           6 -5.671721220001734E-016
           7           6  4.194645659856760E-017
           8           6  6.040746399730477E-019
           9           6 -7.758173343512717E-018
          10           6  1.190707824367444E-017
          11           6  1.249965532481468E-017
           1           7 -4.301419995438911E-027
           2           7  1.363689579530656E-026
           3           7  3.088405252172565E-026
           4           7 -3.414103599736493E-023
           5           7 -9.964146059244939E-014
           6           7 -1.076036483157586E-003
           7           7  1.255028414817788E-004
           8           7  2.787812996402764E-005
           9           7  7.926567374978771E-006
          10           7  2.465590366597197E-006
          11           7  7.954464325972224E-007
           1           8 -1.060801295966679E-028
           2           8  2.842383621617553E-028
           3           8  9.014238316538812E-028
           4           8  6.609335584914015E-023
           5           8  1.922534476251725E-013
           6           8  2.076023394882792E-003
           7           8 -2.420659342913575E-004
           8           8 -5.343553765390015E-005
           9           8 -1.505341036718681E-005
          10           8 -4.635964915291664E-006
          11           8 -1.480607995776699E-006
           1           9 -2.614644241365942E-030
           2           9  5.707539519276599E-030
           3           9  2.479224978547871E-029
           4           9 -9.332341102690849E-023
           5           9 -2.711579023033862E-013
           6           9 -2.928630533857179E-003
           7           9  3.417403490473158E-004
           8           9  7.653248894002210E-005
           9           9  2.192030685869725E-005
          10           9  6.851133395839690E-006
          11           9  2.217312539076552E-006
           1          10 -6.451144290746794E-032
           2          10  1.101187051242606E-031
           3          10  1.036776664635791E-030
           4          10  1.125710964811240E-022
           5          10  3.316272386607478E-013
           6          10  3.575556960954254E-003
           7          10 -4.162392674018210E-004
           8          10 -8.952460547034913E-005
           9          10 -2.482232833145059E-005
          10          10 -7.591997642050316E-006
          11          10 -2.417888091157032E-006
           1          11 -1.582191723226574E-033
           2          11  2.002931790752319E-033
           3          11 -3.647157365791615E-031
           4          11 -1.202464962197432E-022
           5          11 -3.499170065980416E-013
           6          11 -3.963542611050664E-003
           7          11  4.651967636854050E-004
           8          11  1.127558457102082E-004
           9          11  3.277495836163684E-005
          10          11  1.018473803911100E-005
          11          11  3.263134849182856E-006
