  variables="x","y","p" 
      zone        i=11        j=11
           1           1 -8.311342665010272E-018
           2           1  8.116283992908454E-018
           3           1  2.377178399210928E-018
           4           1  1.295435202386219E-017
           5           1  5.076373021627215E-018
           6           1 -1.245568799391218E-002
           7           1 -6.773352951772893E-004
           8           1  4.852847902805684E-003
           9           1  2.986436603758756E-003
          10           1  1.940068553789308E-003
          11           1  1.380656442019049E-003
           1           2  8.775104059585656E-018
           2           2  8.713140033291086E-019
           3           2  5.986029892353401E-019
           4           2 -1.520121660265347E-017
           5           2  3.477132748443234E-019
           6           2  2.623995004482707E-002
           7           2  4.206340369070291E-004
           8           2 -1.027058138054879E-002
           9           2 -6.054199528674735E-003
          10           2 -3.868089209244542E-003
          11           2 -2.743781534438905E-003
           1           3  4.248284356078186E-020
           2           3 -1.127545367053678E-019
           3           3  3.686251293504562E-020
           4           3  1.356980587232767E-019
           5           3  1.604226639321574E-019
           6           3 -3.882515632433475E-002
           7           3 -1.054236509921743E-003
           8           3  1.508472718726162E-002
           9           3  9.022394633756802E-003
          10           3  5.817183688597546E-003
          11           3  4.137848150219635E-003
           1           4 -3.780623134154756E-022
           2           4  1.291982805498836E-022
           3           4  4.616031015609899E-021
           4           4  7.439791341093749E-021
           5           4  8.762504826335627E-021
           6           4  4.815808697215630E-002
           7           4  1.080262371018718E-003
           8           4 -1.880904246190312E-002
           9           4 -1.118438854941467E-002
          10           4 -7.174779612840969E-003
          11           4 -5.093027709167881E-003
           1           5 -1.497698964007166E-023
           2           5 -6.655921947770092E-024
           3           5  1.802914594662266E-022
           4           5  4.438118513200922E-022
           5           5  7.084866410886358E-022
           6           5 -5.426127738975755E-002
           7           5 -1.357388861599278E-003
           8           5  2.111301881113102E-002
           9           5  1.258783123195763E-002
          10           5  8.100124506296354E-003
          11           5  5.758923881890197E-003
           1           6 -6.018647782956246E-025
           2           6 -7.506172300556437E-025
           3           6  6.642632958569683E-024
           4           6  2.316719011127863E-023
           5           6  4.706935945515080E-023
           6           6  5.621886862361751E-002
           7           6  1.302318277313630E-003
           8           6 -2.194267275899292E-002
           9           6 -1.306225760943638E-002
          10           6 -8.386338372059940E-003
          11           6 -5.954531758773504E-003
           1           7 -2.418651720357755E-026
           2           7 -4.957965162587458E-026
           3           7  2.271394707480883E-025
           4           7  1.113344717127914E-024
           5           7  2.785158489183210E-024
           6           7 -5.426127738967328E-002
           7           7 -1.357388861598017E-003
           8           7  2.111301881109688E-002
           9           7  1.258783123193735E-002
          10           7  8.100124506282905E-003
          11           7  5.758923881880918E-003
           1           8 -9.719577316235316E-028
           2           8 -2.772660802168682E-027
           3           8  6.902238771403021E-027
           4           8  5.027733095299370E-026
           5           8  1.523016610796332E-025
           6           8  4.815808697198574E-002
           7           8  1.080262371013006E-003
           8           8 -1.880904246183964E-002
           9           8 -1.118438854937642E-002
          10           8 -7.174779612817593E-003
          11           8 -5.093027709150597E-003
           1           9 -3.905911776879725E-029
           2           9 -1.427736312266876E-028
           3           9  1.627438829788864E-028
           4           9  2.151407177865775E-027
           5           9  7.848915954576659E-027
           6           9 -3.882515632409430E-002
           7           9 -1.054236509918473E-003
           8           9  1.508472718716195E-002
           9           9  9.022394633699252E-003
          10           9  5.817183688557656E-003
          11           9  4.137848150193017E-003
           1          10 -1.569614467878427E-030
           2          10 -6.997884160159899E-030
           3          10  9.164948726832749E-031
           4          10  8.711271776121743E-029
           5          10  3.854062764717799E-028
           6          10  2.623995004453253E-002
           7          10  4.206340368910680E-004
           8          10 -1.027058138048846E-002
           9          10 -6.054199528617975E-003
          10          10 -3.868089209231301E-003
          11          10 -2.743781534414229E-003
           1          11 -6.307727497544726E-032
           2          11 -3.318711771871307E-031
           3          11 -2.297217647880395E-031
           4          11  3.326147912921669E-030
           5          11  1.812432018339024E-029
           6          11 -1.245568799370744E-002
           7          11 -6.773352951539077E-004
           8          11  4.852847902781997E-003
           9          11  2.986436603720858E-003
          10          11  1.940068553787869E-003
          11          11  1.380656442002357E-003
