  variables="x","y","<greek>r</greek>" 
      zone        i=11        j=11
           1           1 -1.327533738023490E-016
           2           1  1.767986626597825E-016
           3           1  2.770956612438349E-016
           4           1 -3.071570124099561E-016
           5           1 -1.585845290271332E-011
           6           1  4.014866209229465E-002
           7           1 -8.143209831539197E-002
           8           1 -4.532778691371152E-003
           9           1 -1.314856305101274E-003
          10           1 -4.041164967777939E-004
          11           1 -1.296048200017135E-004
           1           2  5.153102970096844E-017
           2           2  3.059487374542910E-017
           3           2  1.600990775957911E-019
           4           2  2.107048420597989E-016
           5           2  3.192081336238394E-011
           6           2 -8.270370882833629E-002
           7           2  0.167565068107170     
           8           2  9.016303004016969E-003
           9           2  2.582284896672765E-003
          10           2  7.817702569438348E-004
          11           2  2.469428393803878E-004
           1           3 -2.186673438888987E-019
           2           3  1.204562346843967E-018
           3           3 -1.198451499673783E-019
           4           3  4.350590835479922E-018
           5           3 -4.608852870053442E-011
           6           3  0.119354499488767     
           7           3 -0.241857840182603     
           8           3 -1.307956931599426E-002
           9           3 -3.759533259960285E-003
          10           3 -1.142881549974553E-003
          11           3 -3.626005258223638E-004
           1           4 -5.740948456938967E-021
           2           4  2.669244083439648E-020
           3           4  1.010335977152472E-020
           4           4  1.274801930780633E-019
           5           4  5.698176619905682E-011
           6           4 -0.147571326746631     
           7           4  0.299027783991915     
           8           4  1.615465608158352E-002
           9           4  4.638594536123141E-003
          10           4  1.408294764523769E-003
          11           4  4.461602647246085E-004
           1           5 -1.415654135979059E-022
           2           5  5.884560242366487E-022
           3           5  5.390506050193599E-022
           4           5 -1.373056331578593E-020
           5           5 -6.384310688020610E-011
           6           5  0.165339200371136     
           7           5 -0.335033313751603     
           8           5 -1.810432813265865E-002
           9           5 -5.200091093795765E-003
          10           5 -1.579468130071372E-003
          11           5 -5.006562283201311E-004
           1           6 -3.490830350196279E-024
           2           6  1.279053104749662E-023
           3           6  1.959149813542599E-023
           4           6  1.747039822305743E-020
           5           6  6.618532188439646E-011
           6           6 -0.171405527748321     
           7           6  0.347325141860991     
           8           6  1.876701358688966E-002
           9           6  5.389742371907954E-003
          10           6  1.636750655654994E-003
          11           6  5.186827779182435E-004
           1           7 -8.608081773825838E-026
           2           7  2.729447260671763E-025
           3           7  6.175115477845981E-025
           4           7 -1.676807557585271E-020
           5           7 -6.384310688430938E-011
           6           7  0.165339200371149     
           7           7 -0.335033313751629     
           8           7 -1.810432813265994E-002
           9           7 -5.200091093795930E-003
          10           7 -1.579468130071198E-003
          11           7 -5.006562283203373E-004
           1           8 -2.122981289354053E-027
           2           8  5.686131219313521E-027
           3           8  1.806130066116547E-026
           4           8  1.496833754945202E-020
           5           8  5.698176609344372E-011
           6           8 -0.147571326746652     
           7           8  0.299027783991955     
           8           8  1.615465608158579E-002
           9           8  4.638594536123956E-003
          10           8  1.408294764524472E-003
          11           8  4.461602647253155E-004
           1           9 -5.233488868778009E-029
           2           9  1.145507299923530E-028
           3           9  4.629625534190323E-028
           4           9 -1.210506595643253E-020
           5           9 -4.608853169246934E-011
           6           9  0.119354499488788     
           7           9 -0.241857840182644     
           8           9 -1.307956931599625E-002
           9           9 -3.759533259960761E-003
          10           9 -1.142881549974772E-003
          11           9 -3.626005258221291E-004
           1          10 -1.292911090345627E-030
           2          10  2.178600176156854E-030
           3          10  4.112825072181212E-029
           4          10  8.411459893638711E-021
           5          10  3.192069148837292E-011
           6          10 -8.270370882835335E-002
           7          10  0.167565068107202     
           8          10  9.016303004018372E-003
           9          10  2.582284896673458E-003
          10          10  7.817702569439049E-004
          11          10  2.469428393803343E-004
           1          11 -3.183602272965128E-032
           2          11  4.220389950788677E-032
           3          11 -1.358786708802607E-029
           4          11 -4.236045133458080E-021
           5          11 -1.585809845882799E-011
           6          11  4.014866209230551E-002
           7          11 -8.143209831541021E-002
           8          11 -4.532778691372743E-003
           9          11 -1.314856305102129E-003
          10          11 -4.041164967778047E-004
          11          11 -1.296048200020741E-004
