  variables="x","y","u" 
      zone        i=11        j=11
           1           1  1.410934714887061E-017
           2           1  5.880736736668524E-017
           3           1  5.089364803563690E-017
           4           1  5.990738898508711E-018
           5           1  6.807501143426641E-013
           6           1 -2.774439500893972E-002
           7           1 -7.513522816604165E-003
           8           1 -4.675910254847054E-004
           9           1 -1.514457583752512E-004
          10           1 -4.896033716553107E-005
          11           1 -1.563375975892347E-005
           1           2 -8.400330476311601E-020
           2           2 -2.146969394404544E-019
           3           2 -1.003652100815609E-019
           4           2 -2.798561037789408E-019
           5           2 -1.400196120731024E-012
           6           2  5.711660783386698E-002
           7           2  1.547054050143384E-002
           8           2  9.612983023295838E-004
           9           2  3.076540116323238E-004
          10           2  9.837624197868270E-005
          11           2  3.103217428286009E-005
           1           3  2.960330684351140E-022
           2           3 -1.658771478828046E-021
           3           3  8.303380104722259E-022
           4           3 -9.317149066732799E-021
           5           3  2.020989492005370E-012
           6           3 -8.243539151639881E-002
           7           3 -2.232775644668321E-002
           8           3 -1.387628435261472E-003
           9           3 -4.448042658188613E-004
          10           3 -1.425304099568947E-004
          11           3 -4.508547480323460E-005
           1           4  7.254926216658323E-024
           2           4 -3.731922582820825E-023
           3           4  2.099672178562251E-024
           4           4  4.903339877999060E-021
           5           4 -2.498709535436971E-012
           6           4  0.101922372114510     
           7           4  2.760599785324385E-002
           8           4  1.715617046491615E-003
           9           4  5.497803363744917E-004
          10           4  1.760799900103001E-004
          11           4  5.565493995662243E-005
           1           5  1.788977542696316E-025
           2           5 -8.320978931610228E-025
           3           5 -3.581237997258591E-025
           4           5 -5.640917184494100E-021
           5           5  2.799576069974034E-012
           6           5 -0.114194472263830     
           7           5 -3.092988858824301E-002
           8           5 -1.922192974101824E-003
           9           5 -6.160173711181056E-004
          10           5 -1.973205629503270E-004
          11           5 -6.238363156013392E-005
           1           6  4.411479346837220E-027
           2           6 -1.834344306709544E-026
           3           6 -1.786816593520298E-026
           4           6  5.844309483455139E-021
           5           6 -2.902287530418861E-012
           6           6  0.118384144139323     
           7           6  3.206468956623375E-002
           8           6  1.992716096173948E-003
           9           6  6.386071355708564E-004
          10           6  2.045467085282581E-004
          11           6  6.466184402963329E-005
           1           7  1.087922067986624E-028
           2           7 -3.989689968240296E-028
           3           7 -6.505676676006748E-028
           4           7 -5.637577548207096E-021
           5           7  2.799576069977278E-012
           6           7 -0.114194472263839     
           7           7 -3.092988858824539E-002
           8           7 -1.922192974101965E-003
           9           7 -6.160173711181424E-004
          10           7 -1.973205629503258E-004
          11           7 -6.238363156013836E-005
           1           8  2.681686697956164E-030
           2           8 -8.502030974044564E-030
           3           8 -7.369543045806261E-030
           4           8  5.031693099550692E-021
           5           8 -2.498709535381095E-012
           6           8  0.101922372114524     
           7           8  2.760599785324746E-002
           8           8  1.715617046491865E-003
           9           8  5.497803363745849E-004
          10           8  1.760799900103437E-004
          11           8  5.565493995663924E-005
           1           9  6.618504021484746E-032
           2           9 -1.789217708855901E-031
           3           9 -1.080457562430836E-029
           4           9 -4.069786916395187E-021
           5           9  2.020989492927063E-012
           6           9 -8.243539151641280E-002
           7           9 -2.232775644668699E-002
           8           9 -1.387628435261704E-003
           9           9 -4.448042658189277E-004
          10           9 -1.425304099569089E-004
          11           9 -4.508547480323497E-005
           1          10  1.625034591048894E-033
           2          10 -3.558393748513114E-033
           3          10  7.079603273650759E-030
           4          10  2.818639072512107E-021
           5          10 -1.400196276464896E-012
           6          10  5.711660783387792E-002
           7          10  1.547054050143678E-002
           8          10  9.612983023297694E-004
           9          10  3.076540116323918E-004
          10          10  9.837624197870490E-005
          11          10  3.103217428286841E-005
           1          11  4.060223495727511E-035
           2          11 -6.365975535368307E-035
           3          11 -3.559879518955921E-030
           4          11 -1.401568742902894E-021
           5          11  6.808020388767901E-013
           6          11 -2.774439500894588E-002
           7          11 -7.513522816605932E-003
           8          11 -4.675910254848188E-004
           9          11 -1.514457583752857E-004
          10          11 -4.896033716551586E-005
          11          11 -1.563375975891713E-005
