  variables="x","y","p" 
      zone        i=11        j=11
           1           1  2.297912928959404E-018
           2           1  7.980430288193219E-018
           3           1  2.371901090507324E-018
           4           1  1.922625756990537E-017
           5           1  6.959412928197196E-013
           6           1  1.226644969965709E-002
           7           1 -9.403900073209273E-003
           8           1 -7.250474006218322E-004
           9           1 -2.341977123945610E-004
          10           1 -7.591703667173695E-005
          11           1 -2.497501049422831E-005
           1           2 -1.262625184938572E-020
           2           2  1.382263278820446E-019
           3           2  1.227670729641303E-019
           4           2  5.811291415782512E-019
           5           2 -1.436051005905545E-012
           6           2 -2.525651124407705E-002
           7           2  1.934744603648927E-002
           8           2  1.430678234001386E-003
           9           2  4.576309988612802E-004
          10           2  1.464156422191658E-004
          11           2  4.750489774410292E-005
           1           3 -5.856399214643924E-022
           2           3  2.991932849638266E-021
           3           3 -3.094979671153466E-022
           4           3  1.161426518736693E-020
           5           3  2.072275465195605E-012
           6           3  3.645148327177080E-002
           7           3 -2.792599405770387E-002
           8           3 -2.077944311598680E-003
           9           3 -6.668978082878370E-004
          10           3 -2.141854996674566E-004
          11           3 -6.978160162777444E-005
           1           4 -1.435237698938151E-023
           2           4  6.673101621883848E-023
           3           4  2.525828225293004E-023
           4           4 -5.996487104060821E-022
           5           4 -2.562221352440407E-012
           6           4 -4.506847663697644E-002
           7           4  3.452699321485047E-002
           8           4  2.565847993569460E-003
           9           4  8.226461575562103E-004
          10           4  2.638815561036168E-004
          11           4  8.585309221786298E-005
           1           5 -3.539138149833280E-025
           2           5  1.471136451833427E-024
           3           5  1.347637024140908E-024
           4           5  9.946031316231248E-022
           5           5  2.870708758764639E-012
           6           5  5.049495716947706E-002
           7           5 -3.868435884608706E-002
           8           5 -2.875686652985579E-003
           9           5 -9.222843767046293E-004
          10           5 -2.959705658861515E-004
          11           5 -9.634295575704918E-005
           1           6 -8.727087363406370E-027
           2           6  3.197644064815412E-026
           3           6  4.897645436417178E-026
           4           6 -1.023001880936972E-021
           5           6 -2.976038536120699E-012
           6           6 -5.234757877784741E-002
           7           6  4.010362282278718E-002
           8           6  2.980889177419625E-003
           9           6  9.558987761650610E-004
          10           6  3.066982518046195E-004
          11           6  9.981037117067667E-005
           1           7 -2.152037571878609E-028
           2           7  6.823940600050182E-028
           3           7  1.548107592984317E-027
           4           7  9.870092460524301E-022
           5           7  2.870708758754580E-012
           6           7  5.049495716948104E-002
           7           7 -3.868435884609020E-002
           8           7 -2.875686652985805E-003
           9           7 -9.222843767046524E-004
          10           7 -2.959705658861355E-004
          11           7 -9.634295575712826E-005
           1           8 -5.307103372938877E-030
           2           8  1.422494908479167E-029
           3           8  4.232439853751052E-029
           4           8 -8.809278189107945E-022
           5           8 -2.562221352704855E-012
           6           8 -4.506847663698272E-002
           7           8  3.452699321485506E-002
           8           8  2.565847993569836E-003
           9           8  8.226461575563751E-004
          10           8  2.638815561037130E-004
          11           8  8.585309221795209E-005
           1           9 -1.308243371737128E-031
           2           9  2.862105694292956E-031
           3           9  3.507767367377610E-030
           4           9  7.125240595695157E-022
           5           9  2.072275457718668E-012
           6           9  3.645148327177706E-002
           7           9 -2.792599405770877E-002
           8           9 -2.077944311598997E-003
           9           9 -6.668978082879040E-004
          10           9 -2.141854996674964E-004
          11           9 -6.978160162771745E-005
           1          10 -3.225984239030287E-033
           2          10  5.504659948566514E-033
           3          10 -1.529363512905403E-030
           4          10 -4.934195354084501E-022
           5          10 -1.436050996766752E-012
           6          10 -2.525651124408197E-002
           7          10  1.934744603649305E-002
           8          10  1.430678234001634E-003
           9          10  4.576309988613971E-004
          10          10  1.464156422191881E-004
          11          10  4.750489774406060E-005
           1          11 -7.965447041394345E-035
           2          11  9.489530716351680E-035
           3          11  7.836640969026213E-031
           4          11  2.451905499607271E-022
           5          11  6.959461091017368E-013
           6          11  1.226644969965999E-002
           7          11 -9.403900073211563E-003
           8          11 -7.250474006220575E-004
           9          11 -2.341977123946477E-004
          10          11 -7.591703667172384E-005
          11          11 -2.497501049425709E-005
