 VARIABLES= "X", "Mass Density", "Velocity", "Pressure","Total Energy","Mach Number","Mass flux"
 ZONE DATAPACKING=POINT
  0.500000000000E+00  0.100000000000E+01  0.100000000000E+01  0.178571428571E-02  0.504464285714E+00  0.200000000000E+02  0.100000000000E+01
  0.150000000000E+01  0.100000000000E+01  0.100000000000E+01  0.178571428571E-02  0.504464285714E+00  0.200000000000E+02  0.100000000000E+01
  0.250000000000E+01  0.100000000000E+01  0.100000000000E+01  0.178571428571E-02  0.504464285714E+00  0.200000000000E+02  0.100000000000E+01
  0.350000000000E+01  0.100000000000E+01  0.100000000000E+01  0.178571428571E-02  0.504464285714E+00  0.200000000000E+02  0.100000000000E+01
  0.450000000000E+01  0.100000000000E+01  0.100000000000E+01  0.178571428571E-02  0.504464285714E+00  0.200000000000E+02  0.100000000000E+01
  0.550000000000E+01  0.146678900461E+01  0.829963841761E+00  0.712029584031E-01  0.683198849304E+00  0.318368402387E+01  0.121738183732E+01
  0.650000000000E+01  0.592592592593E+01  0.168750000000E+00  0.833035714286E+00  0.216696428571E+01  0.380387347006E+00  0.100000000000E+01
  0.750000000000E+01  0.592592592593E+01  0.168750000000E+00  0.833035714286E+00  0.216696428571E+01  0.380387347006E+00  0.100000000000E+01
  0.850000000000E+01  0.592592592593E+01  0.168750000000E+00  0.833035714286E+00  0.216696428571E+01  0.380387347006E+00  0.100000000000E+01
  0.950000000000E+01  0.592592592593E+01  0.168750000000E+00  0.833035714286E+00  0.216696428571E+01  0.380387347006E+00  0.100000000000E+01
  0.105000000000E+02  0.592592592593E+01  0.168750000000E+00  0.833035714286E+00  0.216696428571E+01  0.380387347006E+00  0.100000000000E+01
