 VARIABLES= "X", "Mass Density", "Velocity", "Pressure","Total Energy","Mach Number","Mass flux"
 ZONE DATAPACKING=POINT
  0.500000000000E+00  0.100000000000E+01  0.100000000000E+01  0.178571428571E-02  0.504464285714E+00  0.200000000000E+02  0.100000000000E+01
  0.150000000000E+01  0.100000000000E+01  0.100000000000E+01  0.178571428571E-02  0.504464285714E+00  0.200000000000E+02  0.100000000000E+01
  0.250000000000E+01  0.100000000000E+01  0.100000000000E+01  0.178571428571E-02  0.504464285714E+00  0.200000000000E+02  0.100000000000E+01
  0.350000000000E+01  0.100000000000E+01  0.100000000000E+01  0.178571428571E-02  0.504464285714E+00  0.200000000000E+02  0.100000000000E+01
  0.450000000000E+01  0.100000000000E+01  0.100000000000E+01  0.178571428571E-02  0.504464285714E+00  0.200000000000E+02  0.100000000000E+01
  0.550000000000E+01  0.197939899441E+01  0.700363406259E+00  0.143054437476E+00  0.843092506212E+00  0.220178766371E+01  0.138629862207E+01
  0.650000000000E+01  0.546701124506E+01  0.201423853586E+00  0.741912903362E+00  0.196568486982E+01  0.462110039767E+00  0.110118647258E+01
  0.750000000000E+01  0.592426655662E+01  0.168874249292E+00  0.832709162294E+00  0.216624853940E+01  0.380688745262E+00  0.100045606735E+01
  0.850000000000E+01  0.592592589761E+01  0.168750002120E+00  0.833035708713E+00  0.216696427350E+01  0.380387352147E+00  0.100000000778E+01
  0.950000000000E+01  0.592592592593E+01  0.168750000000E+00  0.833035714286E+00  0.216696428571E+01  0.380387347006E+00  0.100000000000E+01
  0.105000000000E+02  0.592592592593E+01  0.168750000000E+00  0.833035714286E+00  0.216696428571E+01  0.380387347006E+00  0.100000000000E+01
